<?xml version="1.0"?>
<VTKFile type="UnstructuredGrid" version="0.1" byte_order="LittleEndian">
  <UnstructuredGrid>
    <Piece NumberOfCells="2" NumberOfPoints="6">
      <PointData Scalars="p">
        <DataArray type="Float32" Name="p" NumberOfComponents="1" format="ascii">
          100000 90000 100000 100000 100000 100000 100000 100000
        </DataArray>
        <DataArray type="Float32" Name="T" NumberOfComponents="1" format="ascii">
          320 320 320 320 320 321 320 350
        </DataArray>
      </PointData>
      <CellData Scalars="small">
        <DataArray type="Float32" Name="small" NumberOfComponents="1" format="ascii">
          1e-16 1e-15
        </DataArray>
      </CellData>
      <Points>
        <DataArray type="Float32" Name="Coordinates" NumberOfComponents="3" format="ascii">
          1.0 0.0 0.0 0.0 1.0 0.0 1.0 1.0 0.0
          2.0 0.0 0.0 2.0 1.0 0.0 0.0 0.0 0.0
        </DataArray>
      </Points>
      <Cells>
        <DataArray type="Int32" Name="connectivity" NumberOfComponents="1" format="ascii">
          5 0 2 1 0 3 4 2
        </DataArray>
        <DataArray type="Int32" Name="offsets" NumberOfComponents="1" format="ascii">
          4 8
        </DataArray>
        <DataArray type="UInt8" Name="types" NumberOfComponents="1" format="ascii">
          9 9
        </DataArray>
      </Cells>
    </Piece>
  </UnstructuredGrid>
</VTKFile>
